 vasp.5.4.4.18Apr17-6-g9f103f2a35 (build Sep 10 2018 16:07:18) complex           
 executed on             LinuxGNU date 2019.04.26  10:35:53
 running on    8 total cores
 distrk:  each k-point on    8 cores,    1 groups
 distr:  one band on NCORES_PER_BAND=   1 cores,    8 groups


--------------------------------------------------------------------------------------------------------


 INCAR:
 POTCAR:    PAW_PBE O 08Apr2002                   
 POTCAR:    PAW_PBE Zr_sv 04Jan2005               

 ----------------------------------------------------------------------------- 
|                                                                             |
|           W    W    AA    RRRRR   N    N  II  N    N   GGGG   !!!           |
|           W    W   A  A   R    R  NN   N  II  NN   N  G    G  !!!           |
|           W    W  A    A  R    R  N N  N  II  N N  N  G       !!!           |
|           W WW W  AAAAAA  RRRRR   N  N N  II  N  N N  G  GGG   !            |
|           WW  WW  A    A  R   R   N   NN  II  N   NN  G    G                |
|           W    W  A    A  R    R  N    N  II  N    N   GGGG   !!!           |
|                                                                             |
|      For optimal performance we recommend to set                            |
|        NCORE= 4 - approx SQRT( number of cores)                             |
|      NCORE specifies how many cores store one orbital (NPAR=cpu/NCORE).     |
|      This setting can  greatly improve the performance of VASP for DFT.     |
|      The default,   NCORE=1            might be grossly inefficient         |
|      on modern multi-core architectures or massively parallel machines.     |
|      Do your own testing !!!!                                               |
|      Unfortunately you need to use the default for GW and RPA calculations. |
|      (for HF NCORE is supported but not extensively tested yet)             |
|                                                                             |
 ----------------------------------------------------------------------------- 

 POTCAR:    PAW_PBE O 08Apr2002                   
   VRHFIN =O: s2p4                                                              
   LEXCH  = PE                                                                  
   EATOM  =   432.3788 eV,   31.7789 Ry                                         
                                                                                
   TITEL  = PAW_PBE O 08Apr2002                                                 
   LULTRA =        F    use ultrasoft PP ?                                      
   IUNSCR =        1    unscreen: 0-lin 1-nonlin 2-no                           
   RPACOR =    1.200    partial core radius                                     
   POMASS =   16.000; ZVAL   =    6.000    mass and valenz                      
   RCORE  =    1.520    outmost cutoff radius                                   
   RWIGS  =    1.550; RWIGS  =    0.820    wigner-seitz radius (au A)           
   ENMAX  =  400.000; ENMIN  =  300.000 eV                                      
   ICORE  =        2    local potential                                         
   LCOR   =        T    correct aug charges                                     
   LPAW   =        T    paw PP                                                  
   EAUG   =  605.392                                                            
   DEXC   =    0.000                                                            
   RMAX   =    1.553    core radius for proj-oper                               
   RAUG   =    1.300    factor for augmentation sphere                          
   RDEP   =    1.550    radius for radial grids                                 
   RDEPT  =    1.329    core radius for aug-charge                              
                                                                                
   Atomic configuration                                                         
    4 entries                                                                   
     n  l   j            E        occ.                                          
     1  0  0.50      -514.6923   2.0000                                         
     2  0  0.50       -23.9615   2.0000                                         
     2  1  0.50        -9.0305   4.0000                                         
     3  2  1.50        -9.5241   0.0000                                         
   Description                                                                  
     l       E           TYP  RCUT    TYP  RCUT                                 
     0    -23.9615318     23  1.200                                             
     0     -9.5240782     23  1.200                                             
     1     -9.0304911     23  1.520                                             
     1      8.1634956     23  1.520                                             
     2     -9.5240782      7  1.500                                             
  local pseudopotential read in
  partial core-charges read in
  partial kinetic energy density read in
  kinetic energy density of atom read in
  atomic valenz-charges read in
  non local Contribution for L=           0  read in
    real space projection operators read in
  non local Contribution for L=           0  read in
    real space projection operators read in
  non local Contribution for L=           1  read in
    real space projection operators read in
  non local Contribution for L=           1  read in
    real space projection operators read in
    PAW grid and wavefunctions read in

   number of l-projection  operators is LMAX  =           4
   number of lm-projection operators is LMMAX =           8

 POTCAR:    PAW_PBE Zr_sv 04Jan2005               
   VRHFIN =Zr: 4s4p5s4d                                                         
   LEXCH  = PE                                                                  
   EATOM  =  1284.2219 eV,   94.3876 Ry                                         
                                                                                
   TITEL  = PAW_PBE Zr_sv 04Jan2005                                             
   LULTRA =        F    use ultrasoft PP ?                                      
   IUNSCR =        1    unscreen: 0-lin 1-nonlin 2-no                           
   RPACOR =    2.200    partial core radius                                     
   POMASS =   91.224; ZVAL   =   12.000    mass and valenz                      
   RCORE  =    2.500    outmost cutoff radius                                   
   RWIGS  =    3.070; RWIGS  =    1.625    wigner-seitz radius (au A)           
   ENMAX  =  229.898; ENMIN  =  172.424 eV                                      
   ICORE  =        3    local potential                                         
   LCOR   =        T    correct aug charges                                     
   LPAW   =        T    paw PP                                                  
   EAUG   =  461.257                                                            
   DEXC   =    0.000                                                            
   RMAX   =    2.561    core radius for proj-oper                               
   RAUG   =    1.300    factor for augmentation sphere                          
   RDEP   =    2.597    radius for radial grids                                 
   RDEPT  =    2.007    core radius for aug-charge                              
                                                                                
   Atomic configuration                                                         
   11 entries                                                                   
     n  l   j            E        occ.                                          
     1  0  0.50    -17820.0161   2.0000                                         
     2  0  0.50     -2467.0882   2.0000                                         
     2  1  1.50     -2199.6095   6.0000                                         
     3  0  0.50      -402.4863   2.0000                                         
     3  1  1.50      -315.3675   6.0000                                         
     3  2  2.50      -172.4472  10.0000                                         
     4  0  0.50       -52.4146   2.0000                                         
     5  0  0.50        -3.8421   1.0000                                         
     4  1  1.50       -30.5054   6.0000                                         
     4  2  2.50        -2.3341   3.0000                                         
     4  3  2.50        -1.3606   0.0000                                         
   Description                                                                  
     l       E           TYP  RCUT    TYP  RCUT                                 
     0    -52.4145962     23  2.200                                             
     0     -3.8421270     23  2.500                                             
     1    -30.5053914     23  2.200                                             
     1     20.4087390     23  2.200                                             
     2     -2.3340816     23  2.500                                             
     2     -0.6120942     23  2.500                                             
     3     -4.0817478     23  2.500                                             
  local pseudopotential read in
  partial core-charges read in
  partial kinetic energy density read in
  atomic valenz-charges read in
  non local Contribution for L=           0  read in
    real space projection operators read in
  non local Contribution for L=           0  read in
    real space projection operators read in
  non local Contribution for L=           1  read in
    real space projection operators read in
  non local Contribution for L=           1  read in
    real space projection operators read in
  non local Contribution for L=           2  read in
    real space projection operators read in
  non local Contribution for L=           2  read in
    real space projection operators read in
    PAW grid and wavefunctions read in

   number of l-projection  operators is LMAX  =           6
   number of lm-projection operators is LMMAX =          18

 Optimization of the real space projectors (new method)

 maximal supplied QI-value         = 24.76
 optimisation between [QCUT,QGAM] = [ 10.64, 21.54] = [ 31.73,129.89] Ry 
 Optimized for a Real-space Cutoff    1.34 Angstroem

   l    n(q)    QCUT    max X(q) W(low)/X(q) W(high)/X(q)  e(spline) 
   0      9    10.645    20.381    0.17E-03    0.20E-03    0.24E-06
   0      9    10.645    15.268    0.18E-03    0.22E-03    0.25E-06
   1      8    10.645     5.964    0.22E-03    0.36E-03    0.23E-06
   1      8    10.645     5.382    0.18E-03    0.30E-03    0.21E-06
 Optimization of the real space projectors (new method)

 maximal supplied QI-value         = 15.12
 optimisation between [QCUT,QGAM] = [ 10.73, 21.62] = [ 32.26,130.87] Ry 
 Optimized for a Real-space Cutoff    1.42 Angstroem

   l    n(q)    QCUT    max X(q) W(low)/X(q) W(high)/X(q)  e(spline) 
   0      9    10.734    12.107    0.71E-04    0.14E-04    0.49E-07
   0      9    10.734     9.948    0.16E-03    0.46E-04    0.94E-07
   1      9    10.734     3.563    0.53E-04    0.63E-04    0.52E-07
   1      9    10.734     4.524    0.24E-03    0.11E-02    0.48E-06
   2      8    10.734    87.261    0.16E-03    0.33E-03    0.23E-06
   2      8    10.734    70.950    0.16E-03    0.32E-03    0.22E-06
  PAW_PBE O 08Apr2002                   :
 energy of atom  1       EATOM= -432.3788
 kinetic energy error for atom=    0.0389 (will be added to EATOM!!)
  PAW_PBE Zr_sv 04Jan2005               :
 energy of atom  2       EATOM=-1284.2219
 kinetic energy error for atom=    0.0057 (will be added to EATOM!!)


 POSCAR:  O Zr                                   
  positions in cartesian coordinates
  No initial velocities read in
 exchange correlation table for  LEXCH =        8
   RHO(1)=    0.500       N(1)  =     2000
   RHO(2)=  100.500       N(2)  =     4000

 VTST: version 3.2, (02/03/18)

 CHAIN: initializing optimizer
 
 OPT: Using LBFGS optimizer
 OPT: LBFGS, Init
 OPT: LBFGS, MEMORY             20
 OPT: LBFGS, IMAGES              1
 OPT: LBFGS, MAXMOVE      0.100000
 OPT: LBFGS, LGLOBAL      T
 OPT: LBFGS, INVCURV      0.010000
 OPT: LBFGS, LLINEOPT      F
 OPT: LBFGS, FDSTEP       0.005000
 OPT: LBFGS, LAUTOSCALE      T
 OPT: LBFGS, DAMPING      2.000000
 
 CHAIN: Read ICHAIN            0

 POSCAR:  O Zr                                   
  positions in cartesian coordinates
  No initial velocities read in



--------------------------------------------------------------------------------------------------------


 ion  position               nearest neighbor table
   1  0.769  0.250  0.250-   9 2.17  12 2.17  11 2.29  10 2.29
   2  0.250  0.750  0.250-   9 2.23  10 2.23  11 2.23  12 2.23
   3  0.250  0.250  0.750-   9 2.23  10 2.23  11 2.23  12 2.23
   4  0.250  0.250  0.250-   9 2.23  10 2.23  11 2.23  12 2.23
   5  0.750  0.750  0.750-   9 2.23  10 2.23  11 2.23  12 2.23
   6  0.750  0.750  0.250-   9 2.23  10 2.23  11 2.23  12 2.23
   7  0.750  0.250  0.750-   9 2.23  10 2.23  11 2.23  12 2.23
   8  0.250  0.750  0.750-   9 2.23  10 2.23  11 2.23  12 2.23
   9  0.000  0.000  0.000-   1 2.17   2 2.23   3 2.23   4 2.23   5 2.23   6 2.23   7 2.23   8 2.23
                            10 3.64  11 3.64  12 3.64  11 3.64  12 3.64  10 3.64  12 3.64  12 3.64
  10  0.500  0.500  0.000-   2 2.23   3 2.23   4 2.23   5 2.23   6 2.23   7 2.23   8 2.23   1 2.29
                             9 3.64  11 3.64  12 3.64  11 3.64  12 3.64   9 3.64  11 3.64  11 3.64
  11  0.500  0.000  0.500-   2 2.23   3 2.23   4 2.23   5 2.23   6 2.23   7 2.23   8 2.23   1 2.29
                             9 3.64  10 3.64  12 3.64   9 3.64  10 3.64  10 3.64  12 3.64  10 3.64
  12  0.000  0.500  0.500-   1 2.17   2 2.23   3 2.23   4 2.23   5 2.23   6 2.23   7 2.23   8 2.23
                             9 3.64  10 3.64  11 3.64   9 3.64  10 3.64   9 3.64  11 3.64   9 3.64

  LATTYP: Found a simple cubic cell.
 ALAT       =     5.1500000000
  
  Lattice vectors:
  
 A1 = (   5.1500000000,   0.0000000000,   0.0000000000)
 A2 = (   0.0000000000,   5.1500000000,   0.0000000000)
 A3 = (   0.0000000000,   0.0000000000,   5.1500000000)


Analysis of symmetry for initial positions (statically):
=====================================================================
 Subroutine PRICEL returns:
 Original cell was already a primitive cell.
 

 Routine SETGRP: Setting up the symmetry group for a 
 simple cubic supercell.


 Subroutine GETGRP returns: Found  4 space group operations
 (whereof  2 operations were pure point group operations)
 out of a pool of 48 trial point group operations.


The static configuration has the point symmetry C_1h.
 The point group associated with its full space group is C_2v.


Analysis of symmetry for dynamics (positions and initial velocities):
=====================================================================
 Subroutine PRICEL returns:
 Original cell was already a primitive cell.
 

 Routine SETGRP: Setting up the symmetry group for a 
 simple cubic supercell.


 Subroutine GETGRP returns: Found  4 space group operations
 (whereof  2 operations were pure point group operations)
 out of a pool of 48 trial point group operations.


The dynamic configuration has the point symmetry C_1h.
 The point group associated with its full space group is C_2v.


 Subroutine INISYM returns: Found  4 space group operations
 (whereof  2 operations are pure point group operations),
 and found     1 'primitive' translations



 KPOINTS: KPOINTS created by Atomic Simulation Env

Automatic generation of k-mesh.
Space group operators:
 irot       det(A)        alpha          n_x          n_y          n_z        tau_x        tau_y        tau_z
    1     1.000000     0.000000     1.000000     0.000000     0.000000     0.000000     0.000000     0.000000
    2    -1.000000   180.000000     0.000000    -0.707107     0.707107     0.000000     0.000000     0.000000
    3    -1.000000   180.000000     0.000000     0.707107     0.707107     0.000000     0.500000     0.500000
    4     1.000000   180.000000     1.000000     0.000000     0.000000     0.000000     0.500000     0.500000
 
 Subroutine IBZKPT returns following result:
 ===========================================
 
 Found      2 irreducible k-points:
 
 Following reciprocal coordinates:
            Coordinates               Weight
  0.250000  0.250000  0.250000      4.000000
  0.250000 -0.250000  0.250000      4.000000
 
 Following cartesian coordinates:
            Coordinates               Weight
  0.048544  0.048544  0.048544      4.000000
  0.048544 -0.048544  0.048544      4.000000
 


--------------------------------------------------------------------------------------------------------




 Dimension of arrays:
   k-points           NKPTS =      2   k-points in BZ     NKDIM =      2   number of bands    NBANDS=     64
   number of dos      NEDOS =    301   number of ions     NIONS =     12
   non local maximal  LDIM  =      6   non local SUM 2l+1 LMDIM =     18
   total plane-waves  NPLWV =  46656
   max r-space proj   IRMAX =   4166   max aug-charges    IRDMAX=  14401
   dimension x,y,z NGX =    36 NGY =   36 NGZ =   36
   dimension x,y,z NGXF=    72 NGYF=   72 NGZF=   72
   support grid    NGXF=    72 NGYF=   72 NGZF=   72
   ions per type =               8   4
   NGX,Y,Z   is equivalent  to a cutoff of  11.62, 11.62, 11.62 a.u.
   NGXF,Y,Z  is equivalent  to a cutoff of  23.24, 23.24, 23.24 a.u.

 SYSTEM =  unknown system                          
 POSCAR =   O Zr                                   

 Startparameter for this run:
   NWRITE =      2    write-flag & timer
   PREC   = accura    normal or accurate (medium, high low for compatibility)
   ISTART =      0    job   : 0-new  1-cont  2-samecut
   ICHARG =      2    charge: 1-file 2-atom 10-const
   ISPIN  =      1    spin polarized calculation?
   LNONCOLLINEAR =      F non collinear calculations
   LSORBIT =      F    spin-orbit coupling
   INIWAV =      1    electr: 0-lowe 1-rand  2-diag
   LASPH  =      F    aspherical Exc in radial PAW
   METAGGA=      F    non-selfconsistent MetaGGA calc.

 Electronic Relaxation 1
   ENCUT  =  450.0 eV  33.07 Ry    5.75 a.u.   8.91  8.91  8.91*2*pi/ulx,y,z
   ENINI  =  450.0     initial cutoff
   ENAUG  =  605.4 eV  augmentation charge cutoff
   NELM   =    200;   NELMIN=  2; NELMDL=  0     # of ELM steps 
   EDIFF  = 0.1E-06   stopping-criterion for ELM
   LREAL  =      T    real-space projection
   NLSPLINE    = F    spline interpolate recip. space projectors
   LCOMPAT=      F    compatible to vasp.4.4
   GGA_COMPAT  = T    GGA compatible to vasp.4.4-vasp.4.6
   LMAXPAW     = -100 max onsite density
   LMAXMIX     =    4 max onsite mixed and CHGCAR
   VOSKOWN=      0    Vosko Wilk Nusair interpolation
   ROPT   =   -0.00025  -0.00025
 Ionic relaxation
   EDIFFG = -.1E-02   stopping-criterion for IOM
   NSW    =  99999    number of steps for IOM
   NBLOCK =      1;   KBLOCK =  99999    inner block; outer block 
   IBRION =      3    ionic relax: 0-MD 1-quasi-New 2-CG
   NFREE  =      0    steps in history (QN), initial steepest desc. (CG)
   ISIF   =      2    stress and relaxation
   IWAVPR =     11    prediction:  0-non 1-charg 2-wave 3-comb
   ISYM   =      2    0-nonsym 1-usesym 2-fastsym
   LCORR  =      T    Harris-Foulkes like correction to forces

   POTIM  = 0.0000    time-step for ionic-motion
   TEIN   =    0.0    initial temperature
   TEBEG  =    0.0;   TEEND  =   0.0 temperature during run
   SMASS  =  -3.00    Nose mass-parameter (am)
   estimated Nose-frequenzy (Omega)   =  0.10E-29 period in steps =  0.00 mass=  -0.606E-27a.u.
   SCALEE = 1.0000    scale energy and forces
   NPACO  =    256;   APACO  = 16.0  distance and # of slots for P.C.
   PSTRESS=    0.0 pullay stress

  Mass of Ions in am
   POMASS =  16.00 91.22
  Ionic Valenz
   ZVAL   =   6.00 12.00
  Atomic Wigner-Seitz radii
   RWIGS  =  -1.00 -1.00
  virtual crystal weights 
   VCA    =   1.00  1.00
   NELECT =      96.0000    total number of electrons
   NUPDOWN=      -1.0000    fix difference up-down

 DOS related values:
   EMIN   =  10.00;   EMAX   =-10.00  energy-range for DOS
   EFERMI =   0.00
   ISMEAR =     1;   SIGMA  =   0.20  broadening in eV -4-tet -1-fermi 0-gaus

 Electronic relaxation 2 (details)
   IALGO  =     68    algorithm
   LDIAG  =      T    sub-space diagonalisation (order eigenvalues)
   LSUBROT=      F    optimize rotation matrix (better conditioning)
   TURBO    =      0    0=normal 1=particle mesh
   IRESTART =      0    0=no restart 2=restart with 2 vectors
   NREBOOT  =      0    no. of reboots
   NMIN     =      0    reboot dimension
   EREF     =   0.00    reference energy to select bands
   IMIX   =      4    mixing-type and parameters
     AMIX     =   0.40;   BMIX     =  1.00
     AMIX_MAG =   1.60;   BMIX_MAG =  1.00
     AMIN     =   0.10
     WC   =   100.;   INIMIX=   1;  MIXPRE=   1;  MAXMIX= -45

 Intra band minimization:
   WEIMIN = 0.0010     energy-eigenvalue tresh-hold
   EBREAK =  0.39E-09  absolut break condition
   DEPER  =   0.30     relativ break condition  

   TIME   =   0.40     timestep for ELM

  volume/ion in A,a.u.               =      11.38        76.81
  Fermi-wavevector in a.u.,A,eV,Ry     =   1.455542  2.750575 28.825329  2.118602
  Thomas-Fermi vector in A             =   2.572564

 Write flags
   LWAVE        =      T    write WAVECAR
   LDOWNSAMPLE  =      F    k-point downsampling of WAVECAR
   LCHARG       =      T    write CHGCAR
   LVTOT        =      F    write LOCPOT, total local potential
   LVHAR        =      F    write LOCPOT, Hartree potential only
   LELF         =      F    write electronic localiz. function (ELF)
   LORBIT       =      0    0 simple, 1 ext, 2 COOP (PROOUT), +10 PAW based schemes


 Dipole corrections
   LMONO  =      F    monopole corrections only (constant potential shift)
   LDIPOL =      F    correct potential (dipole corrections)
   IDIPOL =      0    1-x, 2-y, 3-z, 4-all directions 
   EPSILON=  1.0000000 bulk dielectric constant

 Exchange correlation treatment:
   GGA     =    PE    GGA type
   LEXCH   =     8    internal setting for exchange type
   VOSKOWN=      0    Vosko Wilk Nusair interpolation
   LHFCALC =     F    Hartree Fock is set to
   LHFONE  =     F    Hartree Fock one center treatment
   AEXX    =    0.0000 exact exchange contribution

 Linear response parameters
   LEPSILON=     F    determine dielectric tensor
   LRPA    =     F    only Hartree local field effects (RPA)
   LNABLA  =     F    use nabla operator in PAW spheres
   LVEL    =     F    velocity operator in full k-point grid
   LINTERFAST=   F  fast interpolation
   KINTER  =     0    interpolate to denser k-point grid
   CSHIFT  =0.1000    complex shift for real part using Kramers Kronig
   OMEGAMAX=  -1.0    maximum frequency
   DEG_THRESHOLD= 0.2000000E-02 threshold for treating states as degnerate
   RTIME   =   -0.100 relaxation time in fs
  (WPLASMAI=    0.000 imaginary part of plasma frequency in eV, 0.658/RTIME)
   DFIELD  = 0.0000000 0.0000000 0.0000000 field for delta impulse in time

 Orbital magnetization related:
   ORBITALMAG=     F  switch on orbital magnetization
   LCHIMAG   =     F  perturbation theory with respect to B field
   DQ        =  0.001000  dq finite difference perturbation B field
   LLRAUG    =     F  two centre corrections for induced B field



--------------------------------------------------------------------------------------------------------


 quickmin algorithm: (dynamic with friction)
 charge density and potential will be updated during run
 non-spin polarized calculation
 RMM-DIIS sequential band-by-band and
  variant of blocked Davidson during initial phase
 perform sub-space diagonalisation
    before iterative eigenvector-optimisation
 modified Broyden-mixing scheme, WC =      100.0
 initial mixing is a Kerker type mixing with AMIX =  0.4000 and BMIX =      1.0000
 Hartree-type preconditioning will be used
 using additional bands           16
 real space projection scheme for non local part
 use partial core corrections
 calculate Harris-corrections to forces   (improved forces if not selfconsistent)
 use gradient corrections 
 use of overlap-Matrix (Vanderbilt PP)
 Methfessel and Paxton  Order N= 1 SIGMA  =   0.20


--------------------------------------------------------------------------------------------------------


  energy-cutoff  :      450.00
  volume of cell :      136.59
      direct lattice vectors                 reciprocal lattice vectors
     5.150000000  0.000000000  0.000000000     0.194174757  0.000000000  0.000000000
     0.000000000  5.150000000  0.000000000     0.000000000  0.194174757  0.000000000
     0.000000000  0.000000000  5.150000000     0.000000000  0.000000000  0.194174757

  length of vectors
     5.150000000  5.150000000  5.150000000     0.194174757  0.194174757  0.194174757



 k-points in units of 2pi/SCALE and weight: KPOINTS created by Atomic Simulation Env
   0.04854369  0.04854369  0.04854369       0.500
   0.04854369 -0.04854369  0.04854369       0.500

 k-points in reciprocal lattice and weights: KPOINTS created by Atomic Simulation Env
   0.25000000  0.25000000  0.25000000       0.500
   0.25000000 -0.25000000  0.25000000       0.500

 position of ions in fractional coordinates (direct lattice) 
   0.76941748  0.25000000  0.25000000
   0.25000000  0.75000000  0.25000000
   0.25000000  0.25000000  0.75000000
   0.25000000  0.25000000  0.25000000
   0.75000000  0.75000000  0.75000000
   0.75000000  0.75000000  0.25000000
   0.75000000  0.25000000  0.75000000
   0.25000000  0.75000000  0.75000000
   0.00000000  0.00000000  0.00000000
   0.50000000  0.50000000  0.00000000
   0.50000000  0.00000000  0.50000000
   0.00000000  0.50000000  0.50000000

 position of ions in cartesian coordinates  (Angst):
   3.96250000  1.28750000  1.28750000
   1.28750000  3.86250000  1.28750000
   1.28750000  1.28750000  3.86250000
   1.28750000  1.28750000  1.28750000
   3.86250000  3.86250000  3.86250000
   3.86250000  3.86250000  1.28750000
   3.86250000  1.28750000  3.86250000
   1.28750000  3.86250000  3.86250000
   0.00000000  0.00000000  0.00000000
   2.57500000  2.57500000  0.00000000
   2.57500000  0.00000000  2.57500000
   0.00000000  2.57500000  2.57500000



--------------------------------------------------------------------------------------------------------


 k-point  1 :   0.2500 0.2500 0.2500  plane waves:    2968
 k-point  2 :   0.2500-0.2500 0.2500  plane waves:    2968

 maximum and minimum number of plane-waves per node :      2968     2968

 maximum number of plane-waves:      2968
 maximum index in each direction: 
   IXMAX=    8   IYMAX=    9   IZMAX=    8
   IXMIN=   -9   IYMIN=   -9   IZMIN=   -9


 serial   3D FFT for wavefunctions
 parallel 3D FFT for charge:
    minimum data exchange during FFTs selected (reduces bandwidth)


 total amount of memory used by VASP MPI-rank0    42563. kBytes
=======================================================================

   base      :      30000. kBytes
   nonlr-proj:       5218. kBytes
   fftplans  :       1814. kBytes
   grid      :       4551. kBytes
   one-center:        186. kBytes
   wavefun   :        794. kBytes

     INWAV:  cpu time    0.0000: real time    0.0000
 Broyden mixing: mesh for mixing (old mesh)
   NGX = 17   NGY = 17   NGZ = 17
  (NGX  = 72   NGY  = 72   NGZ  = 72)
  gives a total of   4913 points

 initial charge density was supplied:
 charge density of overlapping atoms calculated
 number of electron      96.0000000 magnetization 
 keeping initial charge density in first step


--------------------------------------------------------------------------------------------------------


 Maximum index for non-local projection operator         3911
 Maximum index for augmentation-charges         1796 (set IRDMAX)


--------------------------------------------------------------------------------------------------------


 First call to EWALD:  gamma=   0.344
 Maximum number of real-space cells 3x 3x 3
 Maximum number of reciprocal cells 3x 3x 3

    FEWALD:  cpu time    0.0007: real time    0.0007


--------------------------------------- Iteration      1(   1)  ---------------------------------------


    POTLOK:  cpu time    0.0324: real time    0.0324
    SETDIJ:  cpu time    0.0036: real time    0.0036
     EDDAV:  cpu time    0.2706: real time    0.2706
       DOS:  cpu time    0.0002: real time    0.0002
    --------------------------------------------
      LOOP:  cpu time    0.3068: real time    0.3069

 eigenvalue-minimisations  :   256
 total energy-change (2. order) : 0.8577941E+03  (-0.4974845E+04)
 number of electron      96.0000000 magnetization 
 augmentation part       96.0000000 magnetization 

 Free energy of the ion-electron system (eV)
  ---------------------------------------------------
  alpha Z        PSCENC =       441.48950337
  Ewald energy   TEWEN  =     -7267.19886953
  -Hartree energ DENC   =     -1555.85791733
  -exchange      EXHF   =         0.00000000
  -V(xc)+E(xc)   XCENC  =       423.00741451
  PAW double counting   =      6788.62588938    -6727.14371487
  entropy T*S    EENTRO =         0.00667790
  eigenvalues    EBANDS =       159.28139447
  atomic energy  EATOM  =      8595.58373323
  Solvation  Ediel_sol  =         0.00000000
  ---------------------------------------------------
  free energy    TOTEN  =       857.79411113 eV

  energy without entropy =      857.78743323  energy(sigma->0) =      857.79188516


--------------------------------------------------------------------------------------------------------




--------------------------------------- Iteration      1(   2)  ---------------------------------------


     EDDAV:  cpu time    0.3151: real time    0.3151
       DOS:  cpu time    0.0002: real time    0.0002
    --------------------------------------------
      LOOP:  cpu time    0.3153: real time    0.3153

 eigenvalue-minimisations  :   312
 total energy-change (2. order) :-0.9247455E+03  (-0.8777052E+03)
 number of electron      96.0000000 magnetization 
 augmentation part       96.0000000 magnetization 

 Free energy of the ion-electron system (eV)
  ---------------------------------------------------
  alpha Z        PSCENC =       441.48950337
  Ewald energy   TEWEN  =     -7267.19886953
  -Hartree energ DENC   =     -1555.85791733
  -exchange      EXHF   =         0.00000000
  -V(xc)+E(xc)   XCENC  =       423.00741451
  PAW double counting   =      6788.62588938    -6727.14371487
  entropy T*S    EENTRO =         0.01523828
  eigenvalues    EBANDS =      -765.47270068
  atomic energy  EATOM  =      8595.58373323
  Solvation  Ediel_sol  =         0.00000000
  ---------------------------------------------------
  free energy    TOTEN  =       -66.95142364 eV

  energy without entropy =      -66.96666192  energy(sigma->0) =      -66.95650307


--------------------------------------------------------------------------------------------------------




--------------------------------------- Iteration      1(   3)  ---------------------------------------


     EDDAV:  cpu time    0.3431: real time    0.3431
       DOS:  cpu time    0.0002: real time    0.0002
    --------------------------------------------
      LOOP:  cpu time    0.3433: real time    0.3433

 eigenvalue-minimisations  :   344
 total energy-change (2. order) :-0.6837667E+02  (-0.6794566E+02)
 number of electron      96.0000000 magnetization 
 augmentation part       96.0000000 magnetization 

 Free energy of the ion-electron system (eV)
  ---------------------------------------------------
  alpha Z        PSCENC =       441.48950337
  Ewald energy   TEWEN  =     -7267.19886953
  -Hartree energ DENC   =     -1555.85791733
  -exchange      EXHF   =         0.00000000
  -V(xc)+E(xc)   XCENC  =       423.00741451
  PAW double counting   =      6788.62588938    -6727.14371487
  entropy T*S    EENTRO =         0.11050681
  eigenvalues    EBANDS =      -833.94464249
  atomic energy  EATOM  =      8595.58373323
  Solvation  Ediel_sol  =         0.00000000
  ---------------------------------------------------
  free energy    TOTEN  =      -135.32809692 eV

  energy without entropy =     -135.43860373  energy(sigma->0) =     -135.36493252


--------------------------------------------------------------------------------------------------------




--------------------------------------- Iteration      1(   4)  ---------------------------------------


     EDDAV:  cpu time    0.3803: real time    0.3803
       DOS:  cpu time    0.0002: real time    0.0002
    --------------------------------------------
      LOOP:  cpu time    0.3805: real time    0.3805

 eigenvalue-minimisations  :   392
 total energy-change (2. order) :-0.4404072E+01  (-0.4398771E+01)
 number of electron      96.0000000 magnetization 
 augmentation part       96.0000000 magnetization 

 Free energy of the ion-electron system (eV)
  ---------------------------------------------------
  alpha Z        PSCENC =       441.48950337
  Ewald energy   TEWEN  =     -7267.19886953
  -Hartree energ DENC   =     -1555.85791733
  -exchange      EXHF   =         0.00000000
  -V(xc)+E(xc)   XCENC  =       423.00741451
  PAW double counting   =      6788.62588938    -6727.14371487
  entropy T*S    EENTRO =         0.11399544
  eigenvalues    EBANDS =      -838.35220266
  atomic energy  EATOM  =      8595.58373323
  Solvation  Ediel_sol  =         0.00000000
  ---------------------------------------------------
  free energy    TOTEN  =      -139.73216846 eV

  energy without entropy =     -139.84616390  energy(sigma->0) =     -139.77016694


--------------------------------------------------------------------------------------------------------




--------------------------------------- Iteration      1(   5)  ---------------------------------------


     EDDAV:  cpu time    0.3339: real time    0.3339
       DOS:  cpu time    0.0002: real time    0.0002
    CHARGE:  cpu time    0.0220: real time    0.0221
    MIXING:  cpu time    0.0007: real time    0.0007
    --------------------------------------------
      LOOP:  cpu time    0.3569: real time    0.3569

 eigenvalue-minimisations  :   336
 total energy-change (2. order) :-0.1676182E+00  (-0.1675917E+00)
 number of electron      96.0000118 magnetization 
 augmentation part        8.0009892 magnetization 

 Broyden mixing:
  rms(total) = 0.46410E+01    rms(broyden)= 0.46405E+01
  rms(prec ) = 0.69499E+01
  weight for this iteration     100.00

 Free energy of the ion-electron system (eV)
  ---------------------------------------------------
  alpha Z        PSCENC =       441.48950337
  Ewald energy   TEWEN  =     -7267.19886953
  -Hartree energ DENC   =     -1555.85791733
  -exchange      EXHF   =         0.00000000
  -V(xc)+E(xc)   XCENC  =       423.00741451
  PAW double counting   =      6788.62588938    -6727.14371487
  entropy T*S    EENTRO =         0.11416394
  eigenvalues    EBANDS =      -838.51998936
  atomic energy  EATOM  =      8595.58373323
  Solvation  Ediel_sol  =         0.00000000
  ---------------------------------------------------
  free energy    TOTEN  =      -139.89978667 eV

  energy without entropy =     -140.01395060  energy(sigma->0) =     -139.93784131


--------------------------------------------------------------------------------------------------------




--------------------------------------- Iteration      1(   6)  ---------------------------------------


    POTLOK:  cpu time    0.0261: real time    0.0261
    SETDIJ:  cpu time    0.0035: real time    0.0035
    EDDIAG:  cpu time    0.0296: real time    0.0296
  RMM-DIIS:  cpu time    0.1610: real time    0.1610
    ORTHCH:  cpu time    0.0060: real time    0.0060
       DOS:  cpu time    0.0002: real time    0.0002
    CHARGE:  cpu time    0.0212: real time    0.0212
    MIXING:  cpu time    0.0008: real time    0.0008
    --------------------------------------------
      LOOP:  cpu time    0.2484: real time    0.2484

 eigenvalue-minimisations  :   262
 total energy-change (2. order) : 0.2427639E+02  (-0.1185996E+02)
 number of electron      96.0000089 magnetization 
 augmentation part        6.6687744 magnetization 

 Broyden mixing:
  rms(total) = 0.20712E+01    rms(broyden)= 0.20705E+01
  rms(prec ) = 0.22882E+01
  weight for this iteration     100.00

 eigenvalues of (default mixing * dielectric matrix)
  average eigenvalue GAMMA=   1.1468
  1.1468

 Free energy of the ion-electron system (eV)
  ---------------------------------------------------
  alpha Z        PSCENC =       441.48950337
  Ewald energy   TEWEN  =     -7267.19886953
  -Hartree energ DENC   =     -1637.24857344
  -exchange      EXHF   =         0.00000000
  -V(xc)+E(xc)   XCENC  =       430.29134885
  PAW double counting   =      8563.49776378    -8517.87249318
  entropy T*S    EENTRO =         0.09485573
  eigenvalues    EBANDS =      -724.26066340
  atomic energy  EATOM  =      8595.58373323
  Solvation  Ediel_sol  =         0.00000000
  ---------------------------------------------------
  free energy    TOTEN  =      -115.62339458 eV

  energy without entropy =     -115.71825031  energy(sigma->0) =     -115.65501316


--------------------------------------------------------------------------------------------------------




--------------------------------------- Iteration      1(   7)  ---------------------------------------


    POTLOK:  cpu time    0.0262: real time    0.0262
    SETDIJ:  cpu time    0.0035: real time    0.0035
    EDDIAG:  cpu time    0.0297: real time    0.0297
  RMM-DIIS:  cpu time    0.2133: real time    0.2133
    ORTHCH:  cpu time    0.0060: real time    0.0060
       DOS:  cpu time    0.0002: real time    0.0002
    CHARGE:  cpu time    0.0211: real time    0.0211
    MIXING:  cpu time    0.0008: real time    0.0008
    --------------------------------------------
      LOOP:  cpu time    0.3008: real time    0.3008

 eigenvalue-minimisations  :   338
 total energy-change (2. order) : 0.1119519E+01  (-0.4999822E+00)
 number of electron      96.0000090 magnetization 
 augmentation part        6.4587792 magnetization 

 Broyden mixing:
  rms(total) = 0.97015E+00    rms(broyden)= 0.97011E+00
  rms(prec ) = 0.11100E+01
  weight for this iteration     100.00

 eigenvalues of (default mixing * dielectric matrix)
  average eigenvalue GAMMA=   1.4238
  1.0458  1.8018

 Free energy of the ion-electron system (eV)
  ---------------------------------------------------
  alpha Z        PSCENC =       441.48950337
  Ewald energy   TEWEN  =     -7267.19886953
  -Hartree energ DENC   =     -1610.58985606
  -exchange      EXHF   =         0.00000000
  -V(xc)+E(xc)   XCENC  =       428.43356061
  PAW double counting   =      9746.38374517    -9701.34146046
  entropy T*S    EENTRO =         0.10244748
  eigenvalues    EBANDS =      -747.36667940
  atomic energy  EATOM  =      8595.58373323
  Solvation  Ediel_sol  =         0.00000000
  ---------------------------------------------------
  free energy    TOTEN  =      -114.50387559 eV

  energy without entropy =     -114.60632307  energy(sigma->0) =     -114.53802475


--------------------------------------------------------------------------------------------------------




--------------------------------------- Iteration      1(   8)  ---------------------------------------


    POTLOK:  cpu time    0.0259: real time    0.0259
    SETDIJ:  cpu time    0.0035: real time    0.0035
    EDDIAG:  cpu time    0.0295: real time    0.0295
  RMM-DIIS:  cpu time    0.1767: real time    0.1767
    ORTHCH:  cpu time    0.0063: real time    0.0063
       DOS:  cpu time    0.0002: real time    0.0002
    CHARGE:  cpu time    0.0241: real time    0.0241
    MIXING:  cpu time    0.0008: real time    0.0008
    --------------------------------------------
      LOOP:  cpu time    0.2669: real time    0.2669

 eigenvalue-minimisations  :   292
 total energy-change (2. order) : 0.3906264E-01  (-0.1592564E+00)
 number of electron      96.0000092 magnetization 
 augmentation part        6.4531058 magnetization 

 Broyden mixing:
  rms(total) = 0.24525E+00    rms(broyden)= 0.24509E+00
  rms(prec ) = 0.43073E+00
  weight for this iteration     100.00

 eigenvalues of (default mixing * dielectric matrix)
  average eigenvalue GAMMA=   1.2640
  2.0256  0.8833  0.8833

 Free energy of the ion-electron system (eV)
  ---------------------------------------------------
  alpha Z        PSCENC =       441.48950337
  Ewald energy   TEWEN  =     -7267.19886953
  -Hartree energ DENC   =     -1595.88965820
  -exchange      EXHF   =         0.00000000
  -V(xc)+E(xc)   XCENC  =       427.28219955
  PAW double counting   =     10878.94533100   -10831.52033142
  entropy T*S    EENTRO =         0.09286137
  eigenvalues    EBANDS =      -763.24958232
  atomic energy  EATOM  =      8595.58373323
  Solvation  Ediel_sol  =         0.00000000
  ---------------------------------------------------
  free energy    TOTEN  =      -114.46481295 eV

  energy without entropy =     -114.55767432  energy(sigma->0) =     -114.49576674


--------------------------------------------------------------------------------------------------------




--------------------------------------- Iteration      1(   9)  ---------------------------------------


    POTLOK:  cpu time    0.0259: real time    0.0259
    SETDIJ:  cpu time    0.0035: real time    0.0035
    EDDIAG:  cpu time    0.0295: real time    0.0295
  RMM-DIIS:  cpu time    0.2225: real time    0.2226
    ORTHCH:  cpu time    0.0062: real time    0.0062
       DOS:  cpu time    0.0002: real time    0.0002
    CHARGE:  cpu time    0.0214: real time    0.0214
    MIXING:  cpu time    0.0008: real time    0.0008
    --------------------------------------------
      LOOP:  cpu time    0.3100: real time    0.3100

 eigenvalue-minimisations  :   359
 total energy-change (2. order) : 0.3756356E-01  (-0.4555570E-01)
 number of electron      96.0000092 magnetization 
 augmentation part        6.3090210 magnetization 

 Broyden mixing:
  rms(total) = 0.12380E+00    rms(broyden)= 0.12362E+00
  rms(prec ) = 0.21051E+00
  weight for this iteration     100.00

 eigenvalues of (default mixing * dielectric matrix)
  average eigenvalue GAMMA=   1.3668
  2.5704  1.3113  1.1217  0.4640

 Free energy of the ion-electron system (eV)
  ---------------------------------------------------
  alpha Z        PSCENC =       441.48950337
  Ewald energy   TEWEN  =     -7267.19886953
  -Hartree energ DENC   =     -1599.05572922
  -exchange      EXHF   =         0.00000000
  -V(xc)+E(xc)   XCENC  =       427.50011200
  PAW double counting   =     11059.45796860   -11011.52734326
  entropy T*S    EENTRO =         0.10334555
  eigenvalues    EBANDS =      -760.77997014
  atomic energy  EATOM  =      8595.58373323
  Solvation  Ediel_sol  =         0.00000000
  ---------------------------------------------------
  free energy    TOTEN  =      -114.42724939 eV

  energy without entropy =     -114.53059495  energy(sigma->0) =     -114.46169791


--------------------------------------------------------------------------------------------------------




--------------------------------------- Iteration      1(  10)  ---------------------------------------


    POTLOK:  cpu time    0.0259: real time    0.0259
    SETDIJ:  cpu time    0.0035: real time    0.0035
    EDDIAG:  cpu time    0.0295: real time    0.0295
  RMM-DIIS:  cpu time    0.2081: real time    0.2081
    ORTHCH:  cpu time    0.0062: real time    0.0062
       DOS:  cpu time    0.0002: real time    0.0002
    CHARGE:  cpu time    0.0211: real time    0.0211
    MIXING:  cpu time    0.0009: real time    0.0009
    --------------------------------------------
      LOOP:  cpu time    0.2953: real time    0.2953

 eigenvalue-minimisations  :   339
 total energy-change (2. order) :-0.2350794E-01  (-0.2647868E-01)
 number of electron      96.0000091 magnetization 
 augmentation part        6.2083338 magnetization 

 Broyden mixing:
  rms(total) = 0.11046E+00    rms(broyden)= 0.11041E+00
  rms(prec ) = 0.19574E+00
  weight for this iteration     100.00

 eigenvalues of (default mixing * dielectric matrix)
  average eigenvalue GAMMA=   1.2650
  2.7339  1.6001  1.0221  0.4845  0.4845

 Free energy of the ion-electron system (eV)
  ---------------------------------------------------
  alpha Z        PSCENC =       441.48950337
  Ewald energy   TEWEN  =     -7267.19886953
  -Hartree energ DENC   =     -1606.42791485
  -exchange      EXHF   =         0.00000000
  -V(xc)+E(xc)   XCENC  =       427.96506439
  PAW double counting   =     11247.11686292   -11197.38111250
  entropy T*S    EENTRO =         0.10189532
  eigenvalues    EBANDS =      -755.69991968
  atomic energy  EATOM  =      8595.58373323
  Solvation  Ediel_sol  =         0.00000000
  ---------------------------------------------------
  free energy    TOTEN  =      -114.45075734 eV

  energy without entropy =     -114.55265265  energy(sigma->0) =     -114.48472244


--------------------------------------------------------------------------------------------------------




--------------------------------------- Iteration      1(  11)  ---------------------------------------


    POTLOK:  cpu time    0.0261: real time    0.0261
    SETDIJ:  cpu time    0.0035: real time    0.0035
    EDDIAG:  cpu time    0.0296: real time    0.0296
  RMM-DIIS:  cpu time    0.2249: real time    0.2249
    ORTHCH:  cpu time    0.0061: real time    0.0061
       DOS:  cpu time    0.0002: real time    0.0002
    CHARGE:  cpu time    0.0212: real time    0.0212
    MIXING:  cpu time    0.0009: real time    0.0009
    --------------------------------------------
      LOOP:  cpu time    0.3124: real time    0.3124

 eigenvalue-minimisations  :   356
 total energy-change (2. order) : 0.4643183E-02  (-0.5697594E-02)
 number of electron      96.0000091 magnetization 
 augmentation part        6.1667430 magnetization 

 Broyden mixing:
  rms(total) = 0.69150E-01    rms(broyden)= 0.69123E-01
  rms(prec ) = 0.12043E+00
  weight for this iteration     100.00

 eigenvalues of (default mixing * dielectric matrix)
  average eigenvalue GAMMA=   1.2248
  2.8751  1.8426  0.9074  0.7064  0.5397  0.4774

 Free energy of the ion-electron system (eV)
  ---------------------------------------------------
  alpha Z        PSCENC =       441.48950337
  Ewald energy   TEWEN  =     -7267.19886953
  -Hartree energ DENC   =     -1608.45882718
  -exchange      EXHF   =         0.00000000
  -V(xc)+E(xc)   XCENC  =       428.06149746
  PAW double counting   =     11263.50119584   -11212.71866307
  entropy T*S    EENTRO =         0.10229755
  eigenvalues    EBANDS =      -754.80798182
  atomic energy  EATOM  =      8595.58373323
  Solvation  Ediel_sol  =         0.00000000
  ---------------------------------------------------
  free energy    TOTEN  =      -114.44611415 eV

  energy without entropy =     -114.54841171  energy(sigma->0) =     -114.48021334


--------------------------------------------------------------------------------------------------------




--------------------------------------- Iteration      1(  12)  ---------------------------------------


    POTLOK:  cpu time    0.0261: real time    0.0261
    SETDIJ:  cpu time    0.0035: real time    0.0035
    EDDIAG:  cpu time    0.0322: real time    0.0322
  RMM-DIIS:  cpu time    0.2156: real time    0.2156
    ORTHCH:  cpu time    0.0060: real time    0.0060
       DOS:  cpu time    0.0002: real time    0.0002
    CHARGE:  cpu time    0.0214: real time    0.0214
    MIXING:  cpu time    0.0010: real time    0.0010
    --------------------------------------------
      LOOP:  cpu time    0.3061: real time    0.3061

 eigenvalue-minimisations  :   342
 total energy-change (2. order) : 0.5004657E-02  (-0.2257025E-02)
 number of electron      96.0000092 magnetization 
 augmentation part        6.1597938 magnetization 

 Broyden mixing:
  rms(total) = 0.24836E-01    rms(broyden)= 0.24819E-01
  rms(prec ) = 0.42281E-01
  weight for this iteration     100.00

 eigenvalues of (default mixing * dielectric matrix)
  average eigenvalue GAMMA=   1.2921
  3.3082  1.9909  1.0697  1.0697  0.6393  0.4834  0.4834

 Free energy of the ion-electron system (eV)
  ---------------------------------------------------
  alpha Z        PSCENC =       441.48950337
  Ewald energy   TEWEN  =     -7267.19886953
  -Hartree energ DENC   =     -1608.96392457
  -exchange      EXHF   =         0.00000000
  -V(xc)+E(xc)   XCENC  =       428.05826264
  PAW double counting   =     11252.48611803   -11200.89591434
  entropy T*S    EENTRO =         0.10197536
  eigenvalues    EBANDS =      -755.10199369
  atomic energy  EATOM  =      8595.58373323
  Solvation  Ediel_sol  =         0.00000000
  ---------------------------------------------------
  free energy    TOTEN  =      -114.44110950 eV

  energy without entropy =     -114.54308485  energy(sigma->0) =     -114.47510128


--------------------------------------------------------------------------------------------------------




--------------------------------------- Iteration      1(  13)  ---------------------------------------


    POTLOK:  cpu time    0.0262: real time    0.0262
    SETDIJ:  cpu time    0.0035: real time    0.0035
    EDDIAG:  cpu time    0.0295: real time    0.0295
  RMM-DIIS:  cpu time    0.1924: real time    0.1924
    ORTHCH:  cpu time    0.0060: real time    0.0060
       DOS:  cpu time    0.0002: real time    0.0002
    CHARGE:  cpu time    0.0215: real time    0.0215
    MIXING:  cpu time    0.0009: real time    0.0009
    --------------------------------------------
      LOOP:  cpu time    0.2801: real time    0.2801

 eigenvalue-minimisations  :   317
 total energy-change (2. order) : 0.8018883E-04  (-0.9988154E-03)
 number of electron      96.0000092 magnetization 
 augmentation part        6.1635008 magnetization 

 Broyden mixing:
  rms(total) = 0.19460E-01    rms(broyden)= 0.19448E-01
  rms(prec ) = 0.26638E-01
  weight for this iteration     100.00

 eigenvalues of (default mixing * dielectric matrix)
  average eigenvalue GAMMA=   1.3250
  3.2178  2.0310  2.0310  0.9334  0.9334  0.5063  0.5063  0.4406

 Free energy of the ion-electron system (eV)
  ---------------------------------------------------
  alpha Z        PSCENC =       441.48950337
  Ewald energy   TEWEN  =     -7267.19886953
  -Hartree energ DENC   =     -1609.35782570
  -exchange      EXHF   =         0.00000000
  -V(xc)+E(xc)   XCENC  =       428.05538082
  PAW double counting   =     11263.12115464   -11210.75530629
  entropy T*S    EENTRO =         0.10226886
  eigenvalues    EBANDS =      -755.48106870
  atomic energy  EATOM  =      8595.58373323
  Solvation  Ediel_sol  =         0.00000000
  ---------------------------------------------------
  free energy    TOTEN  =      -114.44102931 eV

  energy without entropy =     -114.54329816  energy(sigma->0) =     -114.47511893


--------------------------------------------------------------------------------------------------------




--------------------------------------- Iteration      1(  14)  ---------------------------------------


    POTLOK:  cpu time    0.0262: real time    0.0262
    SETDIJ:  cpu time    0.0035: real time    0.0035
    EDDIAG:  cpu time    0.0296: real time    0.0296
  RMM-DIIS:  cpu time    0.2095: real time    0.2095
    ORTHCH:  cpu time    0.0060: real time    0.0060
       DOS:  cpu time    0.0002: real time    0.0002
    CHARGE:  cpu time    0.0214: real time    0.0214
    MIXING:  cpu time    0.0010: real time    0.0010
    --------------------------------------------
      LOOP:  cpu time    0.2974: real time    0.2974

 eigenvalue-minimisations  :   335
 total energy-change (2. order) : 0.2891076E-03  (-0.2315912E-03)
 number of electron      96.0000092 magnetization 
 augmentation part        6.1579701 magnetization 

 Broyden mixing:
  rms(total) = 0.87526E-02    rms(broyden)= 0.87494E-02
  rms(prec ) = 0.12656E-01
  weight for this iteration     100.00

 eigenvalues of (default mixing * dielectric matrix)
  average eigenvalue GAMMA=   1.2726
  3.2490  2.1243  2.1243  0.9276  0.9276  0.6942  0.4907  0.4907  0.4247

 Free energy of the ion-electron system (eV)
  ---------------------------------------------------
  alpha Z        PSCENC =       441.48950337
  Ewald energy   TEWEN  =     -7267.19886953
  -Hartree energ DENC   =     -1609.28020516
  -exchange      EXHF   =         0.00000000
  -V(xc)+E(xc)   XCENC  =       428.05542574
  PAW double counting   =     11287.44354676   -11234.99052568
  entropy T*S    EENTRO =         0.10219174
  eigenvalues    EBANDS =      -755.64554066
  atomic energy  EATOM  =      8595.58373323
  Solvation  Ediel_sol  =         0.00000000
  ---------------------------------------------------
  free energy    TOTEN  =      -114.44074020 eV

  energy without entropy =     -114.54293194  energy(sigma->0) =     -114.47480411


--------------------------------------------------------------------------------------------------------




--------------------------------------- Iteration      1(  15)  ---------------------------------------


    POTLOK:  cpu time    0.0260: real time    0.0260
    SETDIJ:  cpu time    0.0035: real time    0.0035
    EDDIAG:  cpu time    0.0295: real time    0.0295
  RMM-DIIS:  cpu time    0.2136: real time    0.2136
    ORTHCH:  cpu time    0.0061: real time    0.0061
       DOS:  cpu time    0.0002: real time    0.0002
    CHARGE:  cpu time    0.0214: real time    0.0214
    MIXING:  cpu time    0.0010: real time    0.0010
    --------------------------------------------
      LOOP:  cpu time    0.3013: real time    0.3013

 eigenvalue-minimisations  :   345
 total energy-change (2. order) : 0.2019193E-05  (-0.5761054E-04)
 number of electron      96.0000092 magnetization 
 augmentation part        6.1535190 magnetization 

 Broyden mixing:
  rms(total) = 0.46097E-02    rms(broyden)= 0.46084E-02
  rms(prec ) = 0.66031E-02
  weight for this iteration     100.00

 eigenvalues of (default mixing * dielectric matrix)
  average eigenvalue GAMMA=   1.2706
  3.5112  2.5513  1.6765  1.2220  0.9174  0.9174  0.4957  0.4957  0.4197  0.4997

 Free energy of the ion-electron system (eV)
  ---------------------------------------------------
  alpha Z        PSCENC =       441.48950337
  Ewald energy   TEWEN  =     -7267.19886953
  -Hartree energ DENC   =     -1609.41178594
  -exchange      EXHF   =         0.00000000
  -V(xc)+E(xc)   XCENC  =       428.06045013
  PAW double counting   =     11284.85076421   -11232.27011758
  entropy T*S    EENTRO =         0.10210312
  eigenvalues    EBANDS =      -755.64651919
  atomic energy  EATOM  =      8595.58373323
  Solvation  Ediel_sol  =         0.00000000
  ---------------------------------------------------
  free energy    TOTEN  =      -114.44073818 eV

  energy without entropy =     -114.54284130  energy(sigma->0) =     -114.47477255


--------------------------------------------------------------------------------------------------------




--------------------------------------- Iteration      1(  16)  ---------------------------------------


    POTLOK:  cpu time    0.0261: real time    0.0261
    SETDIJ:  cpu time    0.0035: real time    0.0035
    EDDIAG:  cpu time    0.0295: real time    0.0295
  RMM-DIIS:  cpu time    0.2077: real time    0.2077
    ORTHCH:  cpu time    0.0062: real time    0.0062
       DOS:  cpu time    0.0002: real time    0.0002
    CHARGE:  cpu time    0.0214: real time    0.0214
    MIXING:  cpu time    0.0010: real time    0.0010
    --------------------------------------------
      LOOP:  cpu time    0.2955: real time    0.2955

 eigenvalue-minimisations  :   339
 total energy-change (2. order) :-0.1788841E-05  (-0.1901782E-04)
 number of electron      96.0000092 magnetization 
 augmentation part        6.1524771 magnetization 

 Broyden mixing:
  rms(total) = 0.24314E-02    rms(broyden)= 0.24307E-02
  rms(prec ) = 0.34709E-02
  weight for this iteration     100.00

 eigenvalues of (default mixing * dielectric matrix)
  average eigenvalue GAMMA=   1.3020
  3.4425  2.5123  2.0859  1.6326  1.0052  0.8754  0.8754  0.4981  0.4981  0.4202
  0.4763

 Free energy of the ion-electron system (eV)
  ---------------------------------------------------
  alpha Z        PSCENC =       441.48950337
  Ewald energy   TEWEN  =     -7267.19886953
  -Hartree energ DENC   =     -1609.59080699
  -exchange      EXHF   =         0.00000000
  -V(xc)+E(xc)   XCENC  =       428.06738690
  PAW double counting   =     11281.75574332   -11229.02718384
  entropy T*S    EENTRO =         0.10217808
  eigenvalues    EBANDS =      -755.62242452
  atomic energy  EATOM  =      8595.58373323
  Solvation  Ediel_sol  =         0.00000000
  ---------------------------------------------------
  free energy    TOTEN  =      -114.44073997 eV

  energy without entropy =     -114.54291805  energy(sigma->0) =     -114.47479933


--------------------------------------------------------------------------------------------------------




--------------------------------------- Iteration      1(  17)  ---------------------------------------


    POTLOK:  cpu time    0.0262: real time    0.0262
    SETDIJ:  cpu time    0.0035: real time    0.0035
    EDDIAG:  cpu time    0.0294: real time    0.0294
  RMM-DIIS:  cpu time    0.2115: real time    0.2115
    ORTHCH:  cpu time    0.0060: real time    0.0060
       DOS:  cpu time    0.0002: real time    0.0002
    CHARGE:  cpu time    0.0214: real time    0.0214
    MIXING:  cpu time    0.0011: real time    0.0011
    --------------------------------------------
      LOOP:  cpu time    0.2992: real time    0.2992

 eigenvalue-minimisations  :   340
 total energy-change (2. order) : 0.5681250E-07  (-0.7953942E-05)
 number of electron      96.0000092 magnetization 
 augmentation part        6.1511655 magnetization 

 Broyden mixing:
  rms(total) = 0.11681E-02    rms(broyden)= 0.11675E-02
  rms(prec ) = 0.20751E-02
  weight for this iteration     100.00

 eigenvalues of (default mixing * dielectric matrix)
  average eigenvalue GAMMA=   1.3250
  3.5833  2.5471  2.2784  1.6402  1.2079  0.9627  0.8969  0.8969  0.4962  0.4962
  0.4206  0.4731

 Free energy of the ion-electron system (eV)
  ---------------------------------------------------
  alpha Z        PSCENC =       441.48950337
  Ewald energy   TEWEN  =     -7267.19886953
  -Hartree energ DENC   =     -1609.57647491
  -exchange      EXHF   =         0.00000000
  -V(xc)+E(xc)   XCENC  =       428.06843059
  PAW double counting   =     11283.74193464   -11231.04941139
  entropy T*S    EENTRO =         0.10213501
  eigenvalues    EBANDS =      -755.60172092
  atomic energy  EATOM  =      8595.58373323
  Solvation  Ediel_sol  =         0.00000000
  ---------------------------------------------------
  free energy    TOTEN  =      -114.44073991 eV

  energy without entropy =     -114.54287492  energy(sigma->0) =     -114.47478491


--------------------------------------------------------------------------------------------------------




--------------------------------------- Iteration      1(  18)  ---------------------------------------


    POTLOK:  cpu time    0.0262: real time    0.0262
    SETDIJ:  cpu time    0.0035: real time    0.0035
    EDDIAG:  cpu time    0.0294: real time    0.0294
  RMM-DIIS:  cpu time    0.2177: real time    0.2177
    ORTHCH:  cpu time    0.0063: real time    0.0063
       DOS:  cpu time    0.0002: real time    0.0002
    CHARGE:  cpu time    0.0214: real time    0.0214
    MIXING:  cpu time    0.0011: real time    0.0011
    --------------------------------------------
      LOOP:  cpu time    0.3058: real time    0.3058

 eigenvalue-minimisations  :   347
 total energy-change (2. order) :-0.2172819E-06  (-0.2055501E-05)
 number of electron      96.0000092 magnetization 
 augmentation part        6.1508222 magnetization 

 Broyden mixing:
  rms(total) = 0.29916E-03    rms(broyden)= 0.29894E-03
  rms(prec ) = 0.47437E-03
  weight for this iteration     100.00

 eigenvalues of (default mixing * dielectric matrix)
  average eigenvalue GAMMA=   1.3661
  3.8639  2.6660  2.0694  1.9537  1.5025  1.0716  0.9990  0.8737  0.8737  0.4962
  0.4962  0.4206  0.4728

 Free energy of the ion-electron system (eV)
  ---------------------------------------------------
  alpha Z        PSCENC =       441.48950337
  Ewald energy   TEWEN  =     -7267.19886953
  -Hartree energ DENC   =     -1609.57442241
  -exchange      EXHF   =         0.00000000
  -V(xc)+E(xc)   XCENC  =       428.06756523
  PAW double counting   =     11284.10581438   -11231.39306778
  entropy T*S    EENTRO =         0.10214528
  eigenvalues    EBANDS =      -755.62314190
  atomic energy  EATOM  =      8595.58373323
  Solvation  Ediel_sol  =         0.00000000
  ---------------------------------------------------
  free energy    TOTEN  =      -114.44074013 eV

  energy without entropy =     -114.54288541  energy(sigma->0) =     -114.47478856


--------------------------------------------------------------------------------------------------------




--------------------------------------- Iteration      1(  19)  ---------------------------------------


    POTLOK:  cpu time    0.0262: real time    0.0262
    SETDIJ:  cpu time    0.0035: real time    0.0035
    EDDIAG:  cpu time    0.0294: real time    0.0294
  RMM-DIIS:  cpu time    0.2085: real time    0.2085
    ORTHCH:  cpu time    0.0060: real time    0.0060
       DOS:  cpu time    0.0002: real time    0.0002
    CHARGE:  cpu time    0.0214: real time    0.0214
    MIXING:  cpu time    0.0011: real time    0.0011
    --------------------------------------------
      LOOP:  cpu time    0.2964: real time    0.2964

 eigenvalue-minimisations  :   335
 total energy-change (2. order) :-0.1319935E-05  (-0.7993785E-06)
 number of electron      96.0000092 magnetization 
 augmentation part        6.1504368 magnetization 

 Broyden mixing:
  rms(total) = 0.63644E-04    rms(broyden)= 0.63216E-04
  rms(prec ) = 0.10441E-03
  weight for this iteration     100.00

 eigenvalues of (default mixing * dielectric matrix)
  average eigenvalue GAMMA=   1.4035
  4.0013  2.8148  2.2619  2.1262  1.4486  1.4486  0.9546  0.9546  0.8765  0.8765
  0.4962  0.4962  0.4206  0.4728

 Free energy of the ion-electron system (eV)
  ---------------------------------------------------
  alpha Z        PSCENC =       441.48950337
  Ewald energy   TEWEN  =     -7267.19886953
  -Hartree energ DENC   =     -1609.58704361
  -exchange      EXHF   =         0.00000000
  -V(xc)+E(xc)   XCENC  =       428.06806126
  PAW double counting   =     11284.38301459   -11231.65669418
  entropy T*S    EENTRO =         0.10214541
  eigenvalues    EBANDS =      -755.62459199
  atomic energy  EATOM  =      8595.58373323
  Solvation  Ediel_sol  =         0.00000000
  ---------------------------------------------------
  free energy    TOTEN  =      -114.44074145 eV

  energy without entropy =     -114.54288686  energy(sigma->0) =     -114.47478992


--------------------------------------------------------------------------------------------------------




--------------------------------------- Iteration      1(  20)  ---------------------------------------


    POTLOK:  cpu time    0.0300: real time    0.0300
    SETDIJ:  cpu time    0.0042: real time    0.0042
    EDDIAG:  cpu time    0.0300: real time    0.0300
  RMM-DIIS:  cpu time    0.1394: real time    0.1394
    ORTHCH:  cpu time    0.0062: real time    0.0062
       DOS:  cpu time    0.0002: real time    0.0002
    CHARGE:  cpu time    0.0214: real time    0.0214
    MIXING:  cpu time    0.0012: real time    0.0012
    --------------------------------------------
      LOOP:  cpu time    0.2326: real time    0.2326

 eigenvalue-minimisations  :   191
 total energy-change (2. order) :-0.1455010E-06  (-0.2190721E-07)
 number of electron      96.0000092 magnetization 
 augmentation part        6.1504304 magnetization 

 Broyden mixing:
  rms(total) = 0.59425E-04    rms(broyden)= 0.59374E-04
  rms(prec ) = 0.91343E-04
  weight for this iteration     100.00

 eigenvalues of (default mixing * dielectric matrix)
  average eigenvalue GAMMA=   1.3776
  3.7773  2.7631  2.2185  2.1281  1.8423  1.1727  1.1727  0.8782  0.8782  1.0292
  0.9176  0.4962  0.4962  0.4206  0.4729

 Free energy of the ion-electron system (eV)
  ---------------------------------------------------
  alpha Z        PSCENC =       441.48950337
  Ewald energy   TEWEN  =     -7267.19886953
  -Hartree energ DENC   =     -1609.58675949
  -exchange      EXHF   =         0.00000000
  -V(xc)+E(xc)   XCENC  =       428.06807600
  PAW double counting   =     11284.45900908   -11231.73173948
  entropy T*S    EENTRO =         0.10214432
  eigenvalues    EBANDS =      -755.62583910
  atomic energy  EATOM  =      8595.58373323
  Solvation  Ediel_sol  =         0.00000000
  ---------------------------------------------------
  free energy    TOTEN  =      -114.44074159 eV

  energy without entropy =     -114.54288592  energy(sigma->0) =     -114.47478970


--------------------------------------------------------------------------------------------------------




--------------------------------------- Iteration      1(  21)  ---------------------------------------


    POTLOK:  cpu time    0.0263: real time    0.0263
    SETDIJ:  cpu time    0.0035: real time    0.0035
    EDDIAG:  cpu time    0.0295: real time    0.0295
  RMM-DIIS:  cpu time    0.1758: real time    0.1758
    ORTHCH:  cpu time    0.0062: real time    0.0062
       DOS:  cpu time    0.0002: real time    0.0002
    CHARGE:  cpu time    0.0264: real time    0.0264
    MIXING:  cpu time    0.0012: real time    0.0012
    --------------------------------------------
      LOOP:  cpu time    0.2691: real time    0.2691

 eigenvalue-minimisations  :   243
 total energy-change (2. order) : 0.6491246E-07  (-0.1020544E-06)
 number of electron      96.0000092 magnetization 
 augmentation part        6.1503618 magnetization 

 Broyden mixing:
  rms(total) = 0.52033E-04    rms(broyden)= 0.52023E-04
  rms(prec ) = 0.71860E-04
  weight for this iteration     100.00

 eigenvalues of (default mixing * dielectric matrix)
  average eigenvalue GAMMA=   1.3067
  3.8049  2.7747  2.1894  2.1894  1.8297  1.2353  1.1379  1.0486  0.8783  0.8783
  0.9034  0.4962  0.4962  0.4206  0.4729  0.1516

 Free energy of the ion-electron system (eV)
  ---------------------------------------------------
  alpha Z        PSCENC =       441.48950337
  Ewald energy   TEWEN  =     -7267.19886953
  -Hartree energ DENC   =     -1609.58180094
  -exchange      EXHF   =         0.00000000
  -V(xc)+E(xc)   XCENC  =       428.06782987
  PAW double counting   =     11284.39473567   -11231.67052871
  entropy T*S    EENTRO =         0.10214500
  eigenvalues    EBANDS =      -755.62748948
  atomic energy  EATOM  =      8595.58373323
  Solvation  Ediel_sol  =         0.00000000
  ---------------------------------------------------
  free energy    TOTEN  =      -114.44074153 eV

  energy without entropy =     -114.54288653  energy(sigma->0) =     -114.47478986


--------------------------------------------------------------------------------------------------------




--------------------------------------- Iteration      1(  22)  ---------------------------------------


    POTLOK:  cpu time    0.0263: real time    0.0263
    SETDIJ:  cpu time    0.0035: real time    0.0035
    EDDIAG:  cpu time    0.0295: real time    0.0295
  RMM-DIIS:  cpu time    0.1355: real time    0.1355
    ORTHCH:  cpu time    0.0060: real time    0.0060
       DOS:  cpu time    0.0002: real time    0.0002
    --------------------------------------------
      LOOP:  cpu time    0.2010: real time    0.2010

 eigenvalue-minimisations  :   166
 total energy-change (2. order) : 0.1065928E-08  (-0.1111491E-07)
 number of electron      96.0000092 magnetization 
 augmentation part        6.1503618 magnetization 

 Free energy of the ion-electron system (eV)
  ---------------------------------------------------
  alpha Z        PSCENC =       441.48950337
  Ewald energy   TEWEN  =     -7267.19886953
  -Hartree energ DENC   =     -1609.58181645
  -exchange      EXHF   =         0.00000000
  -V(xc)+E(xc)   XCENC  =       428.06783038
  PAW double counting   =     11284.39571289   -11231.67147762
  entropy T*S    EENTRO =         0.10214500
  eigenvalues    EBANDS =      -755.62750280
  atomic energy  EATOM  =      8595.58373323
  Solvation  Ediel_sol  =         0.00000000
  ---------------------------------------------------
  free energy    TOTEN  =      -114.44074153 eV

  energy without entropy =     -114.54288653  energy(sigma->0) =     -114.47478986


--------------------------------------------------------------------------------------------------------




 average (electrostatic) potential at core
  the test charge radii are     0.7215  1.0638
  (the norm of the test charge is              1.0000)
       1 -67.0540       2 -66.9533       3 -66.9533       4 -66.9795       5 -66.9430
       6 -66.9838       7 -66.9838       8 -66.9627       9 -76.3587      10 -76.4964
      11 -76.4964      12 -76.3587



 E-fermi :   5.8285     XC(G=0): -11.6008     alpha+bet :-15.2527


 k-point     1 :       0.2500    0.2500    0.2500
  band No.  band energies     occupation 
      1     -41.4324      2.00000
      2     -41.4185      2.00000
      3     -41.3075      2.00000
      4     -41.2959      2.00000
      5     -19.7508      2.00000
      6     -19.7334      2.00000
      7     -19.7077      2.00000
      8     -19.5488      2.00000
      9     -19.4856      2.00000
     10     -19.4246      2.00000
     11     -19.3896      2.00000
     12     -19.3575      2.00000
     13     -19.3427      2.00000
     14     -19.2981      2.00000
     15     -19.2447      2.00000
     16     -19.2210      2.00000
     17     -10.5943      2.00000
     18      -9.9018      2.00000
     19      -9.8756      2.00000
     20      -9.8584      2.00000
     21      -9.5229      2.00000
     22      -9.4831      2.00000
     23      -9.4776      2.00000
     24      -9.2246      2.00000
     25       2.0760      2.00000
     26       2.0896      2.00000
     27       2.1386      2.00000
     28       2.2815      2.00000
     29       2.2971      2.00000
     30       3.0817      2.00000
     31       3.1382      2.00000
     32       3.1976      2.00000
     33       3.2067      2.00000
     34       3.2137      2.00000
     35       3.2269      2.00000
     36       3.2448      2.00000
     37       5.1601      2.00002
     38       5.2655      2.00051
     39       5.2863      2.00086
     40       5.2991      2.00117
     41       5.5019      2.04310
     42       5.5104      2.04701
     43       5.5685      2.06935
     44       5.6199      2.05809
     45       5.6238      2.05478
     46       5.6744      1.96415
     47       5.6929      1.90414
     48       5.6940      1.89987
     49      10.6976     -0.00000
     50      10.7465     -0.00000
     51      10.7635     -0.00000
     52      10.8864     -0.00000
     53      10.9132     -0.00000
     54      11.0745     -0.00000
     55      11.1285     -0.00000
     56      11.1294     -0.00000
     57      12.7641      0.00000
     58      12.8139      0.00000
     59      12.8221      0.00000
     60      13.4015      0.00000
     61      13.7117      0.00000
     62      13.7464      0.00000
     63      13.9065      0.00000
     64      14.1449      0.00000

 k-point     2 :       0.2500   -0.2500    0.2500
  band No.  band energies     occupation 
      1     -41.4326      2.00000
      2     -41.4184      2.00000
      3     -41.3078      2.00000
      4     -41.2957      2.00000
      5     -19.7547      2.00000
      6     -19.7355      2.00000
      7     -19.7184      2.00000
      8     -19.5482      2.00000
      9     -19.4856      2.00000
     10     -19.4151      2.00000
     11     -19.3862      2.00000
     12     -19.3499      2.00000
     13     -19.3486      2.00000
     14     -19.2950      2.00000
     15     -19.2451      2.00000
     16     -19.2202      2.00000
     17     -10.6227      2.00000
     18      -9.9172      2.00000
     19      -9.8727      2.00000
     20      -9.8600      2.00000
     21      -9.4908      2.00000
     22      -9.4861      2.00000
     23      -9.4764      2.00000
     24      -9.2103      2.00000
     25       2.0466      2.00000
     26       2.0990      2.00000
     27       2.1141      2.00000
     28       2.2477      2.00000
     29       2.2569      2.00000
     30       3.0957      2.00000
     31       3.1972      2.00000
     32       3.2176      2.00000
     33       3.2207      2.00000
     34       3.2339      2.00000
     35       3.2363      2.00000
     36       3.2721      2.00000
     37       5.1760      2.00004
     38       5.1982      2.00008
     39       5.2275      2.00018
     40       5.2726      2.00061
     41       5.5329      2.05725
     42       5.5394      2.05998
     43       5.5959      2.06964
     44       5.6120      2.06340
     45       5.6327      2.04562
     46       5.6774      1.95565
     47       5.6854      1.93027
     48       5.7221      1.77425
     49      10.6808     -0.00000
     50      10.7054     -0.00000
     51      10.8022     -0.00000
     52      10.8710     -0.00000
     53      10.9211     -0.00000
     54      11.0822     -0.00000
     55      11.0855     -0.00000
     56      11.1022     -0.00000
     57      12.7766      0.00000
     58      12.8009      0.00000
     59      12.8140      0.00000
     60      13.4422      0.00000
     61      13.6333      0.00000
     62      13.7804      0.00000
     63      13.7906      0.00000
     64      14.2094      0.00000


--------------------------------------------------------------------------------------------------------


 soft charge-density along one line, spin component           1
         0         1         2         3         4         5         6         7         8         9
 total charge-density along one line

 pseudopotential strength for first ion, spin component:           1
 11.685 -14.179  -0.000   0.000  -0.001   0.000  -0.000   0.001
-14.179  17.221   0.000  -0.000   0.001  -0.000   0.000  -0.001
 -0.000   0.000  -7.682  -0.002   0.000   9.068   0.002  -0.000
  0.000  -0.000  -0.002  -7.682  -0.000   0.002   9.068   0.000
 -0.001   0.001   0.000  -0.000  -7.682  -0.000   0.000   9.068
  0.000  -0.000   9.068   0.002  -0.000 -10.509  -0.002   0.000
 -0.000   0.000   0.002   9.068   0.000  -0.002 -10.509  -0.000
  0.001  -0.001  -0.000   0.000   9.068   0.000  -0.000 -10.508
 total augmentation occupancy for first ion, spin component:           1
  2.683   0.391   0.000   0.000   0.015   0.000   0.000   0.006
  0.391   0.084   0.000   0.000   0.001  -0.000  -0.000   0.002
  0.000   0.000   2.123   0.035   0.000   0.250   0.009   0.000
  0.000   0.000   0.035   2.123   0.000   0.009   0.250   0.000
  0.015   0.001   0.000   0.000   2.118   0.000   0.000   0.249
  0.000  -0.000   0.250   0.009   0.000   0.035   0.002   0.000
  0.000  -0.000   0.009   0.250   0.000   0.002   0.035   0.000
  0.006   0.002   0.000   0.000   0.249   0.000   0.000   0.035


------------------------ aborting loop because EDIFF is reached ----------------------------------------


    CHARGE:  cpu time    0.0217: real time    0.0217
    FORLOC:  cpu time    0.0032: real time    0.0032
    FORNL :  cpu time    0.0976: real time    0.0977
    STRESS:  cpu time    0.2872: real time    0.2872
    FORCOR:  cpu time    0.0280: real time    0.0280
    FORHAR:  cpu time    0.0092: real time    0.0092
    MIXING:  cpu time    0.0013: real time    0.0013
    OFIELD:  cpu time    0.0000: real time    0.0000

  FORCE on cell =-STRESS in cart. coord.  units (eV):
  Direction    XX          YY          ZZ          XY          YZ          ZX
  --------------------------------------------------------------------------------------
  Alpha Z   441.48950   441.48950   441.48950
  Ewald   -2424.08440 -2421.56562 -2421.56562    -0.00000    39.26560    -0.00000
  Hartree   535.82491   536.87865   536.87865    -0.00000    19.57733    -0.00000
  E(xc)    -446.52292  -446.51609  -446.51609    -0.00000     0.09894     0.00000
  Local      96.81390    93.17727    93.17727     0.00000   -59.30725    -0.00000
  n-local  -227.47248  -227.64067  -227.64071     0.05431    -0.68844    -0.77547
  augment    66.20944    66.25075    66.25075     0.00000     0.23614    -0.00000
  Kinetic  1953.17524  1953.16942  1953.16948    -0.03038     1.14376    -2.23656
  Fock        0.00000     0.00000     0.00000     0.00000     0.00000     0.00000
  -------------------------------------------------------------------------------------
  Total      -4.56680    -4.75677    -4.75677    -0.00000     0.32609     0.00000
  in kB     -53.56746   -55.79578   -55.79578    -0.00000     3.82490     0.00000
  external pressure =      -55.05 kB  Pullay stress =        0.00 kB


 VOLUME and BASIS-vectors are now :
 -----------------------------------------------------------------------------
  energy-cutoff  :      450.00
  volume of cell :      136.59
      direct lattice vectors                 reciprocal lattice vectors
     5.150000000  0.000000000  0.000000000     0.194174757  0.000000000  0.000000000
     0.000000000  5.150000000  0.000000000     0.000000000  0.194174757  0.000000000
     0.000000000  0.000000000  5.150000000     0.000000000  0.000000000  0.194174757

  length of vectors
     5.150000000  5.150000000  5.150000000     0.194174757  0.194174757  0.194174757


 FORCES acting on ions
    electron-ion (+dipol)            ewald-force                    non-local-force                 convergence-correction
 -----------------------------------------------------------------------------------------------
   0.234E+02 0.714E-09 -.314E-05   -.238E+02 0.000E+00 -.142E-13   -.498E+00 0.000E+00 0.000E+00   -.454E-04 0.112E-13 0.633E-13
   -.324E+01 0.751E-12 -.103E-12   0.323E+01 0.000E+00 0.000E+00   0.838E-01 0.000E+00 -.434E-18   0.752E-04 0.162E-13 0.528E-13
   -.324E+01 -.178E-12 0.840E-13   0.323E+01 0.000E+00 0.000E+00   0.838E-01 0.000E+00 0.867E-18   0.752E-04 0.918E-14 0.652E-13
   -.140E+02 -.170E-12 -.989E-13   0.130E+02 -.142E-13 0.000E+00   0.173E+01 0.000E+00 -.347E-17   0.504E-04 -.110E-13 -.382E-13
   0.178E+01 -.197E-11 0.217E-11   -.170E+01 0.000E+00 0.000E+00   -.679E-01 0.000E+00 0.000E+00   -.810E-04 0.172E-13 0.660E-13
   0.411E+01 0.125E-11 -.391E-11   -.410E+01 -.142E-13 0.000E+00   -.164E+00 0.000E+00 0.694E-17   -.710E-04 -.361E-14 -.302E-13
   0.411E+01 -.131E-11 0.219E-11   -.410E+01 -.142E-13 0.000E+00   -.164E+00 0.694E-17 -.173E-17   -.710E-04 -.822E-14 -.272E-13
   -.189E+01 0.850E-12 0.397E-13   0.159E+01 -.142E-13 0.000E+00   0.532E+00 0.000E+00 0.867E-18   0.776E-04 -.393E-14 -.226E-13
   -.267E+01 0.854E+01 0.854E+01   0.257E+01 -.834E+01 -.834E+01   0.184E+00 -.257E+00 -.257E+00   -.982E-05 -.956E-04 -.956E-04
   -.404E+01 0.818E+01 -.818E+01   0.374E+01 -.776E+01 0.776E+01   0.249E+00 -.281E+00 0.281E+00   0.713E-06 0.116E-03 -.116E-03
   -.404E+01 -.818E+01 0.818E+01   0.374E+01 0.776E+01 -.776E+01   0.249E+00 0.281E+00 -.281E+00   0.713E-06 -.116E-03 0.116E-03
[...]
    SETDIJ:  cpu time    0.0035: real time    0.0035
    EDDIAG:  cpu time    0.0297: real time    0.0297
  RMM-DIIS:  cpu time    0.1641: real time    0.1641
    ORTHCH:  cpu time    0.0061: real time    0.0061
       DOS:  cpu time    0.0002: real time    0.0002
    CHARGE:  cpu time    0.0216: real time    0.0216
    MIXING:  cpu time    0.0008: real time    0.0008
    --------------------------------------------
      LOOP:  cpu time    0.2529: real time    0.2529

 eigenvalue-minimisations  :   261
 total energy-change (2. order) :-0.9025080E-06  (-0.9842640E-06)
 number of electron      96.0000040 magnetization 
 augmentation part        6.1011734 magnetization 

 Broyden mixing:
  rms(total) = 0.21970E-03    rms(broyden)= 0.21957E-03
  rms(prec ) = 0.32707E-03
  weight for this iteration     100.00

 eigenvalues of (default mixing * dielectric matrix)
  average eigenvalue GAMMA=   1.1534
  1.1534

 Free energy of the ion-electron system (eV)
  ---------------------------------------------------
  alpha Z        PSCENC =       441.48950337
  Ewald energy   TEWEN  =     -7247.40626358
  -Hartree energ DENC   =     -1627.21089336
  -exchange      EXHF   =         0.00000000
  -V(xc)+E(xc)   XCENC  =       428.76845135
  PAW double counting   =     12072.55681406   -12018.53277758
  entropy T*S    EENTRO =         0.02603222
  eigenvalues    EBANDS =      -760.03188383
  atomic energy  EATOM  =      8595.58373323
  Solvation  Ediel_sol  =         0.00000000
  ---------------------------------------------------
  free energy    TOTEN  =      -114.75728412 eV

  energy without entropy =     -114.78331634  energy(sigma->0) =     -114.76596153


--------------------------------------------------------------------------------------------------------




--------------------------------------- Iteration     29(   3)  ---------------------------------------


    POTLOK:  cpu time    0.0267: real time    0.0267
    SETDIJ:  cpu time    0.0034: real time    0.0034
    EDDIAG:  cpu time    0.0299: real time    0.0299
  RMM-DIIS:  cpu time    0.1381: real time    0.1381
    ORTHCH:  cpu time    0.0060: real time    0.0060
       DOS:  cpu time    0.0002: real time    0.0002
    CHARGE:  cpu time    0.0215: real time    0.0215
    MIXING:  cpu time    0.0008: real time    0.0008
    --------------------------------------------
      LOOP:  cpu time    0.2266: real time    0.2266

 eigenvalue-minimisations  :   197
 total energy-change (2. order) : 0.2102879E-06  (-0.2663735E-07)
 number of electron      96.0000040 magnetization 
 augmentation part        6.1011668 magnetization 

 Broyden mixing:
  rms(total) = 0.10712E-03    rms(broyden)= 0.10710E-03
  rms(prec ) = 0.15294E-03
  weight for this iteration     100.00

 eigenvalues of (default mixing * dielectric matrix)
  average eigenvalue GAMMA=   1.5993
  0.9560  2.2427

 Free energy of the ion-electron system (eV)
  ---------------------------------------------------
  alpha Z        PSCENC =       441.48950337
  Ewald energy   TEWEN  =     -7247.40626358
  -Hartree energ DENC   =     -1627.21168304
  -exchange      EXHF   =         0.00000000
  -V(xc)+E(xc)   XCENC  =       428.76849667
  PAW double counting   =     12072.64750635   -12018.62336642
  entropy T*S    EENTRO =         0.02603287
  eigenvalues    EBANDS =      -760.03124334
  atomic energy  EATOM  =      8595.58373323
  Solvation  Ediel_sol  =         0.00000000
  ---------------------------------------------------
  free energy    TOTEN  =      -114.75728391 eV

  energy without entropy =     -114.78331677  energy(sigma->0) =     -114.76596153


--------------------------------------------------------------------------------------------------------




--------------------------------------- Iteration     29(   4)  ---------------------------------------


    POTLOK:  cpu time    0.0267: real time    0.0267
    SETDIJ:  cpu time    0.0035: real time    0.0035
    EDDIAG:  cpu time    0.0305: real time    0.0305
  RMM-DIIS:  cpu time    0.0919: real time    0.0919
    ORTHCH:  cpu time    0.0061: real time    0.0061
       DOS:  cpu time    0.0002: real time    0.0002
    --------------------------------------------
      LOOP:  cpu time    0.1589: real time    0.1589

 eigenvalue-minimisations  :   137
 total energy-change (2. order) : 0.7896233E-08  (-0.1023999E-07)
 number of electron      96.0000040 magnetization 
 augmentation part        6.1011668 magnetization 

 Free energy of the ion-electron system (eV)
  ---------------------------------------------------
  alpha Z        PSCENC =       441.48950337
  Ewald energy   TEWEN  =     -7247.40626358
  -Hartree energ DENC   =     -1627.21225666
  -exchange      EXHF   =         0.00000000
  -V(xc)+E(xc)   XCENC  =       428.76853178
  PAW double counting   =     12072.73544023   -12018.71120472
  entropy T*S    EENTRO =         0.02603334
  eigenvalues    EBANDS =      -760.03080089
  atomic energy  EATOM  =      8595.58373323
  Solvation  Ediel_sol  =         0.00000000
  ---------------------------------------------------
  free energy    TOTEN  =      -114.75728390 eV

  energy without entropy =     -114.78331724  energy(sigma->0) =     -114.76596168


--------------------------------------------------------------------------------------------------------




 average (electrostatic) potential at core
  the test charge radii are     0.7215  1.0638
  (the norm of the test charge is              1.0000)
       1 -67.0918       2 -67.0914       3 -67.0914       4 -67.0918       5 -67.0919
       6 -67.0915       7 -67.0915       8 -67.0919       9 -76.2665      10 -76.2665
      11 -76.2665      12 -76.2665



 E-fermi :   6.0738     XC(G=0): -11.5888     alpha+bet :-15.2527


 k-point     1 :       0.2500    0.2500    0.2500
  band No.  band energies     occupation 
      1     -41.2674      2.00000
      2     -41.2416      2.00000
      3     -41.2404      2.00000
      4     -41.2403      2.00000
      5     -19.7001      2.00000
      6     -19.6997      2.00000
      7     -19.6802      2.00000
      8     -19.4714      2.00000
      9     -19.3995      2.00000
     10     -19.3992      2.00000
     11     -19.3955      2.00000
     12     -19.2701      2.00000
     13     -19.2699      2.00000
     14     -19.2446      2.00000
     15     -19.1974      2.00000
     16     -19.1699      2.00000
     17     -10.6470      2.00000
     18      -9.9932      2.00000
     19      -9.8918      2.00000
     20      -9.8917      2.00000
     21      -9.5841      2.00000
     22      -9.4943      2.00000
     23      -9.4942      2.00000
     24      -9.3691      2.00000
     25       1.8860      2.00000
     26       2.0347      2.00000
     27       2.0347      2.00000
     28       2.1758      2.00000
     29       2.2793      2.00000
     30       3.0088      2.00000
     31       3.0099      2.00000
     32       3.1193      2.00000
     33       3.1874      2.00000
     34       3.2185      2.00000
     35       3.2185      2.00000
     36       3.3704      2.00000
     37       4.7585      2.00000
     38       4.9593      2.00000
     39       4.9603      2.00000
     40       5.0223      2.00000
     41       5.2031      2.00000
     42       5.3285      2.00000
     43       5.3462      2.00000
     44       5.3465      2.00000
     45       5.4308      2.00005
     46       5.7090      2.02704
     47       5.7093      2.02717
     48       5.9259      1.94570
     49      10.8245     -0.00000
     50      10.8864     -0.00000
     51      11.0099     -0.00000
     52      11.0100     -0.00000
     53      11.1934     -0.00000
     54      11.2843     -0.00000
     55      11.3412     -0.00000
     56      11.3421     -0.00000
     57      12.6779      0.00000
     58      12.6798      0.00000
     59      12.9423      0.00000
     60      13.5731      0.00000
     61      13.6764      0.00000
     62      13.6772      0.00000
     63      13.9868      0.00000
     64      14.3350      0.00000

 k-point     2 :       0.2500   -0.2500    0.2500
  band No.  band energies     occupation 
      1     -41.2674      2.00000
      2     -41.2416      2.00000
      3     -41.2404      2.00000
      4     -41.2403      2.00000
      5     -19.7001      2.00000
      6     -19.6997      2.00000
      7     -19.6802      2.00000
      8     -19.4714      2.00000
      9     -19.3995      2.00000
     10     -19.3992      2.00000
     11     -19.3955      2.00000
     12     -19.2701      2.00000
     13     -19.2699      2.00000
     14     -19.2446      2.00000
     15     -19.1974      2.00000
     16     -19.1699      2.00000
     17     -10.6471      2.00000
     18      -9.9933      2.00000
     19      -9.8918      2.00000
     20      -9.8917      2.00000
     21      -9.5841      2.00000
     22      -9.4943      2.00000
     23      -9.4942      2.00000
     24      -9.3691      2.00000
     25       1.8860      2.00000
     26       2.0347      2.00000
     27       2.0348      2.00000
     28       2.1758      2.00000
     29       2.2793      2.00000
     30       3.0089      2.00000
     31       3.0099      2.00000
     32       3.1193      2.00000
     33       3.1874      2.00000
     34       3.2185      2.00000
     35       3.2185      2.00000
     36       3.3704      2.00000
     37       4.7585      2.00000
     38       4.9593      2.00000
     39       4.9603      2.00000
     40       5.0223      2.00000
     41       5.2031      2.00000
     42       5.3285      2.00000
     43       5.3463      2.00000
     44       5.3465      2.00000
     45       5.4308      2.00005
     46       5.7090      2.02704
     47       5.7093      2.02718
     48       5.9259      1.94574
     49      10.8245     -0.00000
     50      10.8864     -0.00000
     51      11.0099     -0.00000
     52      11.0100     -0.00000
     53      11.1934     -0.00000
     54      11.2843     -0.00000
     55      11.3411     -0.00000
     56      11.3422     -0.00000
     57      12.6779      0.00000
     58      12.6798      0.00000
     59      12.9423      0.00000
     60      13.5731      0.00000
     61      13.6764      0.00000
     62      13.6773      0.00000
     63      13.9868      0.00000
     64      14.3352      0.00000


--------------------------------------------------------------------------------------------------------


 soft charge-density along one line, spin component           1
         0         1         2         3         4         5         6         7         8         9
 total charge-density along one line

 pseudopotential strength for first ion, spin component:           1
 11.691 -14.187  -0.000   0.000  -0.010   0.000  -0.000   0.013
-14.187  17.230   0.000  -0.000   0.013  -0.000   0.000  -0.016
 -0.000   0.000  -7.691  -0.009   0.000   9.081   0.011  -0.000
  0.000  -0.000  -0.009  -7.691   0.000   0.011   9.081  -0.000
 -0.010   0.013   0.000   0.000  -7.683  -0.000  -0.000   9.069
  0.000  -0.000   9.081   0.011  -0.000 -10.526  -0.015   0.000
 -0.000   0.000   0.011   9.081  -0.000  -0.015 -10.526   0.000
  0.013  -0.016  -0.000  -0.000   9.069   0.000   0.000 -10.510
 total augmentation occupancy for first ion, spin component:           1
  2.697   0.398   0.000   0.000   0.041   0.000   0.000   0.015
  0.398   0.084   0.000   0.000   0.032   0.000   0.000   0.006
  0.000   0.000   2.135   0.058   0.000   0.257   0.018   0.000
  0.000   0.000   0.058   2.135   0.000   0.018   0.257   0.000
  0.041   0.032   0.000   0.000   2.132   0.000   0.000   0.247
  0.000   0.000   0.257   0.018   0.000   0.037   0.005   0.000
  0.000   0.000   0.018   0.257   0.000   0.005   0.037   0.000
  0.015   0.006   0.000   0.000   0.247   0.000   0.000   0.035


------------------------ aborting loop because EDIFF is reached ----------------------------------------


    CHARGE:  cpu time    0.0215: real time    0.0215
    FORLOC:  cpu time    0.0023: real time    0.0023
    FORNL :  cpu time    0.0981: real time    0.0981
    STRESS:  cpu time    0.2879: real time    0.2879
    FORCOR:  cpu time    0.0280: real time    0.0280
    FORHAR:  cpu time    0.0093: real time    0.0093
    MIXING:  cpu time    0.0008: real time    0.0008
    OFIELD:  cpu time    0.0000: real time    0.0000

  FORCE on cell =-STRESS in cart. coord.  units (eV):
  Direction    XX          YY          ZZ          XY          YZ          ZX
  --------------------------------------------------------------------------------------
  Alpha Z   441.48950   441.48950   441.48950
  Ewald   -2488.72943 -2379.34435 -2379.34435     0.00000     0.00307    -0.00000
  Hartree   525.82723   550.69244   550.69244    -0.00000     0.00105    -0.00000
  E(xc)    -447.56925  -447.08738  -447.08738    -0.00000     0.00000     0.00000
  Local     173.08487    38.42825    38.42825     0.00000    -0.00381    -0.00000
  n-local  -226.22397  -233.36192  -233.36192    -0.00005     0.00014    -0.48658
  augment    64.30437    65.86149    65.86149     0.00000    -0.00002    -0.00000
  Kinetic  1960.85936  1960.66993  1960.66993     0.00010    -0.00005    -1.75811
  Fock        0.00000     0.00000     0.00000     0.00000     0.00000     0.00000
  -------------------------------------------------------------------------------------
  Total       3.04268    -2.65204    -2.65204     0.00000     0.00039     0.00000
  in kB      35.68991   -31.10776   -31.10776     0.00000     0.00456     0.00000
  external pressure =       -8.84 kB  Pullay stress =        0.00 kB


 VOLUME and BASIS-vectors are now :
 -----------------------------------------------------------------------------
  energy-cutoff  :      450.00
  volume of cell :      136.59
      direct lattice vectors                 reciprocal lattice vectors
     5.150000000  0.000000000  0.000000000     0.194174757  0.000000000  0.000000000
     0.000000000  5.150000000  0.000000000     0.000000000  0.194174757  0.000000000
     0.000000000  0.000000000  5.150000000     0.000000000  0.000000000  0.194174757

  length of vectors
     5.150000000  5.150000000  5.150000000     0.194174757  0.194174757  0.194174757


 FORCES acting on ions
    electron-ion (+dipol)            ewald-force                    non-local-force                 convergence-correction
 -----------------------------------------------------------------------------------------------
   0.181E+02 -.944E-11 0.154E-05   -.222E+02 -.568E-13 -.853E-13   0.412E+01 0.000E+00 0.000E+00   0.623E-03 0.435E-12 -.253E-11
   -.180E+02 -.327E-12 -.506E-05   0.221E+02 0.142E-13 0.000E+00   -.411E+01 0.000E+00 0.173E-17   0.171E-04 -.211E-12 -.100E-12
   -.180E+02 -.198E-11 -.505E-05   0.221E+02 -.284E-13 -.284E-13   -.411E+01 0.000E+00 0.000E+00   0.171E-04 -.130E-12 0.450E-12
   0.180E+02 -.847E-11 0.154E-05   -.222E+02 -.142E-13 -.426E-13   0.412E+01 0.000E+00 0.000E+00   0.420E-04 0.102E-12 -.275E-12
   0.181E+02 -.155E-10 0.149E-05   -.222E+02 0.000E+00 0.142E-13   0.412E+01 0.000E+00 -.173E-17   -.320E-03 0.329E-12 -.852E-12
   -.180E+02 -.965E-12 -.505E-05   0.221E+02 0.426E-13 -.426E-13   -.411E+01 0.000E+00 0.173E-17   -.215E-03 -.507E-12 0.243E-12
   -.180E+02 -.240E-11 -.505E-05   0.221E+02 -.284E-13 0.284E-13   -.411E+01 0.000E+00 0.173E-17   -.215E-03 -.595E-12 0.206E-11
   0.181E+02 -.120E-10 0.149E-05   -.222E+02 0.284E-13 0.142E-13   0.412E+01 0.000E+00 0.000E+00   -.209E-04 0.801E-13 0.225E-12
   -.765E-01 0.697E-03 0.697E-03   0.743E-01 -.814E-03 -.814E-03   0.136E-02 0.140E-03 0.140E-03   -.198E-04 0.204E-03 0.204E-03
   -.729E-01 -.180E-02 0.180E-02   0.705E-01 0.167E-02 -.167E-02   0.133E-02 -.984E-04 0.984E-04   0.501E-04 0.461E-04 -.461E-04
   -.729E-01 0.180E-02 -.180E-02   0.705E-01 -.167E-02 0.167E-02   0.133E-02 0.984E-04 -.984E-04   0.501E-04 -.461E-04 0.461E-04
   -.765E-01 -.696E-03 -.696E-03   0.743E-01 0.814E-03 0.814E-03   0.136E-02 -.140E-03 -.140E-03   -.198E-04 -.204E-03 -.204E-03
 -----------------------------------------------------------------------------------------------
   -.419E-01 -.455E-10 -.140E-04   -.389E-13 -.117E-13 0.293E-13   0.298E-01 0.000E+00 0.347E-17   -.120E-04 0.298E-12 0.599E-12


 POSITION                                       TOTAL-FORCE (eV/Angst)
 -----------------------------------------------------------------------------------
      4.10908      1.28750      1.28750        -0.000061     -0.000000      0.000000
      1.05775      3.86250      1.28750         0.000107     -0.000000      0.000000
      1.05775      1.28750      3.86250         0.000107     -0.000000      0.000000
      1.53407      1.28750      1.28750         0.000243     -0.000000      0.000000
      4.10920      3.86250      3.86250        -0.000344      0.000000      0.000000
      3.63276      3.86250      1.28750        -0.000114     -0.000000      0.000000
      3.63276      1.28750      3.86250        -0.000114      0.000000      0.000000
      1.53418      3.86250      3.86250         0.000031     -0.000000      0.000000
      0.00811      0.00001      0.00001         0.000099      0.000227      0.000227
      2.58311      2.57499      0.00001        -0.000027     -0.000174      0.000174
      2.58311      0.00001      2.57499        -0.000027      0.000174     -0.000174
      0.00811      2.57499      2.57499         0.000099     -0.000227     -0.000227
 -----------------------------------------------------------------------------------
    total drift:                               -0.012186     -0.000000     -0.000014


--------------------------------------------------------------------------------------------------------



  FREE ENERGIE OF THE ION-ELECTRON SYSTEM (eV)
  ---------------------------------------------------
  free  energy   TOTEN  =      -114.75728390 eV

  energy  without entropy=     -114.78331724  energy(sigma->0) =     -114.76596168

 d Force = 0.4621218E-06[ 0.352E-07, 0.889E-06]  d Energy = 0.4996000E-06-0.375E-07
 d Force =-0.8627281E-02[-0.864E-02,-0.862E-02]  d Ewald  =-0.8627281E-02-0.158E-10


--------------------------------------------------------------------------------------------------------


    POTLOK:  cpu time    0.0302: real time    0.0302


--------------------------------------------------------------------------------------------------------


 stress matrix after NEB project (eV)
      3.04268      0.00000      0.00000
      0.00000     -2.65204      0.00039
      0.00000      0.00039     -2.65204
  FORCES: max atom, RMS     0.000344    0.000220
  FORCE total and by dimension    0.000761    0.000344
  Stress total and by dimension    4.829548    3.042682
 OPT: skip step - force has converged


--------------------------------------------------------------------------------------------------------


  
 reached required accuracy - stopping structural energy minimisation
 writing wavefunctions
     LOOP+:  cpu time    1.4963: real time    1.4963
    4ORBIT:  cpu time    0.0000: real time    0.0000

 total amount of memory used by VASP MPI-rank0    42563. kBytes
=======================================================================

   base      :      30000. kBytes
   nonlr-proj:       5218. kBytes
   fftplans  :       1814. kBytes
   grid      :       4551. kBytes
   one-center:        186. kBytes
   wavefun   :        794. kBytes

  
  
 General timing and accounting informations for this job:
 ========================================================
  
                  Total CPU time used (sec):      103.478
                            User time (sec):      101.551
                          System time (sec):        1.927
                         Elapsed time (sec):      103.669
  
                   Maximum memory used (kb):       60136.
                   Average memory used (kb):           0.
  
                          Minor page faults:       587181
                          Major page faults:            7
                 Voluntary context switches:         1033
